  12   96
1 1
    19.931177823861745    -0.595568869025125     0.259710143892699
    -0.593286000000000    20.339109499999999     0.210467499999996
     0.261262151728250     0.211189501375800    20.434428900756533
1 2
    -0.894112255592413     0.127521306783110     0.021917234503747
     0.127488500000000     0.250596000000000    -0.030301500000000
     0.021912471130030    -0.030297011931500     0.083023842539250
1 3
     0.187849705027435    -0.091820690939837    -0.055464497498679
    -0.091831000000000    -0.477867000000000     0.034906500000000
    -0.055465002273608     0.034900680769193     0.118399741363962
1 4
     0.043857499115448     0.006285614346898     0.000425709883021
     0.006284500000000     0.046414000000000    -0.000227000000000
     0.000426219445985    -0.000226728014423    -0.003508297556062
1 5
     0.165216738215786     0.074146446389051     0.046452612048139
     0.074146000000000     0.133480000000000    -0.036938000000000
     0.046442422808870    -0.036945214976072    -0.614640885567307
1 6
     0.008897052395017    -0.000790145348043     0.012564496359592
    -0.000790500000000    -0.005495000000000    -0.000295000000000
     0.012565636926559    -0.000295093777549     0.009338885367380
1 7
    -0.001585883941083    -0.000364114845841    -0.007605659066901
    -0.000363500000000     0.037079000000000     0.001539000000000
    -0.007605945249602     0.001539453423747     0.040284047155044
1 8
    -0.000107159120881    -0.000538166742336    -0.000290769756874
    -0.000538500000000    -0.000149000000000    -0.000398500000000
    -0.000290534678013    -0.000398125255166    -0.000267007134456
1 9
     1.924951007506241    -0.040876941168821     1.362355609957679
     0.027200000000000    -1.640977000000001     3.382202000000000
     1.048143454322107     2.325755286869691    -2.356620475581353
1 10
    -0.091025967220141    -0.005414006460035    -0.075826217402773
     0.088153500000000    -0.047111000000000     0.066916500000000
    -0.119070446974430     0.044261139719652    -0.056632003010590
1 11
     0.575786816506454    -0.340408626457386    -0.144280108988388
     0.681777000000000    -1.577192500000000    -1.331253000000000
     0.751832821647534    -1.479819852386302    -1.067931039130289
1 12
    -0.053532682481594    -0.031251764863575    -0.001661342445691
    -0.069393500000000    -0.035803000000000     0.000853500000000
    -0.066005397845353    -0.031189426638034    -0.002744073439266
1 13
     1.924950435050316    -0.027193940568098     1.048143820935313
     0.040871500000000    -1.640976999999999    -2.325674500000000
     1.362394660020400    -3.382302021725700    -2.356634133541682
1 14
    -0.091029734159134    -0.088154341314284    -0.119076179507813
     0.005414000000000    -0.047111500000000    -0.044262500000000
    -0.075822871687157    -0.066916934602075    -0.056631851294289
1 15
     0.575777108563279    -0.681782494666767     0.751850066996856
     0.340420500000000    -1.577208000000000     1.479855000000000
    -0.144283353817211     1.331246108453647    -1.067956105626092
1 16
    -0.053526389400651     0.069394184704625    -0.066006032017102
     0.031254500000000    -0.035802500000000     0.031190500000000
    -0.001662998838812    -0.000853920809445    -0.002743397564822
1 17
    -1.398919262160778     2.693999803311874    -0.947774423111605
     2.197767000000000    -2.488723500000000     0.669144500000000
    -0.666067152087915     0.432100822125926     2.013751103105398
1 18
    -2.359485917216384    -1.690456182812482    -0.100430566261960
    -2.836987500000001    -1.885083500000000    -0.288818000000000
     1.147667677786335     0.660760228606892     0.250153304955491
1 19
    -1.398875175534984    -2.197784062219959    -0.666077427871915
    -2.694040000000000    -2.488802500000000    -0.432107500000000
    -0.947739550267666    -0.669146180131851     2.013753266431816
1 20
    -2.359509712129704     2.837019112118844     1.147702716096155
     1.690468500000000    -1.885089000000000    -0.660772000000000
    -0.100442762438222     0.288831283150967     0.250160475433336
1 21
    -0.048769784417019     0.071858627000639     0.006446929643745
     0.024387500000000    -0.059634500000000    -0.003405500000000
     0.028200906214415    -0.013825148444737    -0.106591300872728
1 22
    -0.039801455567203    -0.027128952742699    -0.052596884483890
    -0.040685000000000    -0.027321500000000    -0.084615000000000
    -0.096872662221053    -0.095328574087629    -0.197802035028412
1 23
    -0.048768808391975    -0.024387994003015     0.028201175914347
    -0.071859500000000    -0.059634500000000     0.013826500000000
     0.006448834007645     0.003406218701772    -0.106594372747302
1 24
    -0.039802450035020     0.040683080599529    -0.096872294694458
     0.027131000000000    -0.027324000000000     0.095335000000000
    -0.052601616883752     0.084615934003389    -0.197815486316835
1 25
    -0.029030278037600     0.070851678588836    -0.043413071070227
     0.070853000000000    -0.086374000000000     0.093109000000000
    -0.043413140009922     0.093107514927085    -0.081485194293632
1 26
    -0.018556837683759    -0.016818574224978     0.005875776712251
    -0.016817500000000    -0.022094000000000     0.004956000000000
     0.005875481936627     0.004956499573391    -0.004917364313407
1 27
    -0.921202850323265    -0.563046259073429    -1.858402965216619
    -0.563060000000000     1.923433500000000    -0.613697999999999
    -1.858455195126578    -0.613695084205087    -3.166030754074264
1 28
    -0.293071000475567     0.010383903490465     0.283758508677109
     0.010382000000000     0.242617000000000    -0.077989500000000
     0.283791349286593    -0.077999840154413    -0.034526170931137
1 29
    -0.078370475179714     0.097397233703664     0.067250463389887
     0.097400000000000    -0.156372000000000    -0.047779000000000
     0.067250319703325    -0.047778225939717    -0.059696293044848
1 30
    -0.025537870132330    -0.028325047532679    -0.018814159642170
    -0.028327000000000    -0.011219000000000    -0.034374000000000
    -0.018813499022575    -0.034368824999163     0.029109039554023
1 31
    -2.130673884942706    -0.615665367461043     2.361402879208615
    -0.615697000000000     2.150875000000000     0.316273000000000
     2.361400216140702     0.316248738850876    -1.414262699760249
1 32
    -2.542245907268857    -0.092378555690330    -3.631190471090476
    -0.092340499999999     1.523420000000000     1.511554500000000
    -3.631236450078801     1.511549746241253    -1.114657711223846
1 33
     0.110732014569436    -0.123358028111454    -0.027026318839649
    -0.081823500000000     0.138200500000000     0.019308500000000
    -0.003211252213453     0.008164297599442    -0.036904972539218
1 34
     0.010883687305342     0.379105979830211     0.156409071230419
     0.077074500000000     0.490252000000000     0.173606500000000
     0.001716508614836    -0.099246771818855    -0.117208357530276
1 35
     0.804368807900999     0.156332385816436    -0.052725362688725
     0.489625000000000    -0.308171500000000    -0.008514000000000
    -0.157329193671082    -0.024185854697633    -0.401740815823568
1 36
    -3.982611475951416     1.837259831586386    -0.285393917703884
     1.538091500000000    -1.811261500000000    -0.151523500000000
    -0.334912890335900    -0.180061633826582    -2.221108664096536
1 37
    -0.001941460502010     0.002493805468792    -0.002595799821484
    -0.003147000000000     0.002111000000000    -0.002692500000000
     0.001827131777809     0.002212775727513     0.001899079864957
1 38
     0.001768907531454     0.004612556547048    -0.004677473348041
     0.010546000000000     0.011427500000000    -0.001205500000000
    -0.004089209766598    -0.001841755461739     0.016003701668574
1 39
     0.048676649115865     0.033518764202420     0.119013062383679
     0.022332500000000    -0.004972000000000     0.045943000000000
     0.072929092079183     0.047106835084166     0.196184993747594
1 40
    -0.003511873395024    -0.024198934187639    -0.003592044832323
    -0.008340000000000    -0.023485500000000     0.041807500000000
    -0.002416911876406    -0.021069686357927     0.120153468987551
1 41
     0.105914412361716    -0.147087485516904     0.160859155546308
    -0.107195000000000     0.111111000000000    -0.158302000000000
     0.105044846617275    -0.147014955107859     0.015492157551136
1 42
     0.147197224734633     0.301768734008318    -0.366688728023601
     0.301297500000000     0.475237000000000    -0.417403500000000
    -0.232002669675260    -0.239874308674973     0.157023819476984
1 43
     0.247168989090275     0.129568317341744     0.172315712596564
     0.503838500000000     0.066638500000000     0.331097000000000
     0.497418222053272     0.233065754689504     0.102102345451917
1 44
    -0.067996831377328    -0.146944543092891    -0.418046127674091
    -0.183439500000000    -0.067590000000000     0.293248000000000
    -0.203153109403554     0.033983644403273    -0.087858687293829
1 45
     0.062578541643431    -0.070074411100438    -0.047252601100275
    -0.032743500000000     0.037078000000000     0.036301000000000
    -0.033528710530418     0.051451823254342     0.031520322055556
1 46
    -0.039222859850074     0.135118602284198     0.069164525383272
     0.162983000000000     0.202079000000000     0.147899000000000
     0.217235228199590     0.462388250078359     0.125069089870261
1 47
     0.158853724617405     0.120970417129940    -0.106950933435226
     0.088974000000000     0.002810500000000    -0.062010500000000
    -0.126003771153192    -0.097339746767733     0.074102959718382
1 48
    -0.247003942566609    -0.317742220343347     0.465714901376292
    -0.107830500000000    -0.017994500000000    -0.442509500000000
     0.178237992221741    -0.381708897533502     0.353110019959726
1 49
    -0.037390063289956     0.005665265660965    -0.013033779022407
    -0.033236000000000     0.138966500000000    -0.140197000000000
     0.022550571691017    -0.141304282155368     0.134903695750182
1 50
    -0.005162543603324    -0.002969944677133     0.000010272138027
    -0.003757000000000    -0.002305500000000    -0.000064500000000
     0.001296457537611     0.002362555967421    -0.006337107205236
1 51
    -0.115585764853069     0.076364869510284     0.206416720866818
    -0.038531000000000    -0.062525500000000     0.447970000000000
    -0.115382401970946     0.125444199951669     0.546200708381190
1 52
     0.032820581498109    -0.009394757634342     0.001917960475512
     0.000052000000000     0.004465000000000     0.002151500000000
     0.004604452542705     0.018435744060895     0.021012535472443
1 53
    -0.155445814807754    -0.520762503615780    -0.086574859130064
    -0.118537000000000     0.631717000000000     0.135907500000000
    -0.034496313775597     0.366831372130584    -0.162922832103892
1 54
     0.062455652923831     0.067658345440391     0.100354738984052
     0.074313000000000     0.055835000000000     0.104102000000000
    -0.025001722684539    -0.007928659000897    -0.026772989365802
1 55
    -0.405748947909802     0.868679299009469    -0.713101935717466
     0.688479500000000    -0.425196500000000    -0.854880500000000
     0.029468483693315    -0.048392414130926    -1.372043833932752
1 56
     0.879871798723446    -0.226693576610065     0.262029630549997
    -0.448117500000000     0.080617500000000    -0.238244500000000
     0.209040342124204    -0.147612071816672    -0.038824298765743
1 57
    -1.546388118099184    -0.383754679335039     0.960095811886004
     0.002240500000000    -2.180470000000000    -0.394067000000000
    -0.110708596138333    -0.054537058917987    -1.915087281791789
1 58
     0.391182052304457    -0.024806218316866    -0.151799983743529
     0.272643000000000    -0.144624500000000    -0.087966500000000
    -0.104538580885909     0.025427569527518    -0.006524085057263
1 59
    -0.071931454057753     0.214984910177840     0.104283022394981
     0.057105500000000     0.526858000000000     0.127868000000000
     0.086744736211887     0.359456718409712    -0.020330566434669
1 60
     0.076395381866722    -0.120938437720525    -0.095943484604517
    -0.065613500000000     0.089602500000000     0.073852000000000
    -0.000014473817480    -0.003107173146129     0.001615244001950
1 61
     0.012939347155834    -0.097728741701712    -0.561042179781580
    -0.157392500000000    -0.142594000000000     0.304921500000000
    -0.230499086066855     0.061742809502370     0.534881118946548
1 62
     0.121230688182812     0.144908150816208     0.194390998441654
     0.074412500000000    -0.042520500000000     0.011841500000000
     0.296289597402454     0.123484949688423     0.235882389335984
1 63
     0.014132121812413     0.056229015474479    -0.050475598844998
     0.098466000000000     0.103913000000000    -0.101195000000000
    -0.085290869485688    -0.094912680848437     0.067666252928472
1 64
     0.008658599498487    -0.020313607917797     0.004633094754824
    -0.013540000000000     0.000622000000000    -0.005947000000000
     0.004328261271836    -0.018100484327522     0.003670520388725
1 65
    -0.283214615068816    -0.141495725675335     0.018698656708223
    -0.198966000000000     0.720605000000000    -0.141913000000000
     0.111729215111110    -0.471577098994663    -0.105421465608577
1 66
     0.145444440058216     0.094022813932473    -0.071752623129424
     0.142156500000000     0.110588000000000    -0.072388000000000
    -0.037320401077071    -0.023123505737899     0.009170015953007
1 67
    -0.983562587111268     0.252212434782956     0.182791004986804
    -0.176854500000000    -2.827087500000000    -0.989192000000000
     0.198433649299854    -0.232455072039769    -2.261793222208802
1 68
     0.266833705035994     0.004126820856832    -0.114610291657890
    -0.130977500000000    -0.049604500000000     0.110384000000000
    -0.013391730678460    -0.003848509560727    -0.032675090776670
1 69
     0.003503740099190    -0.046937094226578    -0.055905592395356
    -0.046824500000000     0.101122000000000     0.082743500000000
    -0.082201916714726     0.145285161209190     0.115713139354683
1 70
     0.006543352848323     0.004927402704054     0.002131991998648
     0.013333000000000     0.005750500000000     0.003853500000000
     0.017257939995533     0.009882747843286     0.008233283720553
1 71
    -0.048381041076042     0.072914498789506    -0.394075824299346
     0.068280000000000    -0.115482000000000    -0.402631500000000
    -0.126208387384734    -0.067701012431088     0.509427450188420
1 72
     0.098860629332819    -0.087038710948451     0.157490340961704
    -0.000353500000000     0.011953000000000    -0.029005000000000
     0.073806994808188    -0.093462630022129     0.116653403492028
1 73
    -2.163348140377385     0.207998671397766     0.251585673896666
     0.559076500000000    -1.896828500000000    -0.220306499999999
     1.051073133585302    -0.642316110226733    -3.089529415885402
1 74
     0.718912514043591     0.310133513973564     0.218028443847409
     0.208328500000000    -0.281134000000000     0.165034500000000
     0.220204203700858     0.177802235984605    -0.190861622329591
1 75
    -0.005572222883068     0.365349025059656    -0.074793564745944
     0.070482500000000     0.598848000000000    -0.072010000000000
    -0.084937019870537    -0.319567111918428    -0.134057912164244
1 76
     0.067796429721095    -0.173975805042876     0.095061772163712
    -0.055011500000000     0.104286500000000    -0.078513000000000
     0.000713021852390    -0.009536606617020    -0.024519249928471
1 77
    -0.133466737853980    -0.108252443448211     0.273523702291454
    -0.064384000000000    -0.121411500000000    -0.331077000000000
    -0.063255407159044    -0.103744575396851     0.598317366384083
1 78
     0.016424050286141     0.018446865993290    -0.011119505769388
     0.007992500000000     0.000688500000000    -0.004908000000000
    -0.004952228236847    -0.013350776460108     0.021083361776752
1 79
    -0.010863467206554     0.026149446350203     0.023817001835506
     0.049063500000000     0.076193500000000     0.114052500000000
     0.042399889054271     0.093487529071514     0.096068012431419
1 80
     0.000904555848237    -0.000895022763165    -0.003480385040388
    -0.003620000000000     0.002389500000000     0.003617000000000
    -0.001958413219943    -0.000321874425298     0.000183564320289
1 81
    -3.110917767433445    -2.493140473444591     0.626276718960772
    -1.827285500000000    -3.198224500000000     0.904645000000000
     0.192476927155759     0.612207396871885    -1.632127744961119
1 82
     0.422219815407557    -0.016115973782876     0.186271753305335
    -0.266234000000000    -0.069031500000000    -0.087763500000000
     0.056111870459981     0.000281838322271    -0.145539020354704
1 83
    -0.268994586833524    -0.333327173394647    -0.171005918457244
    -0.064858000000000     0.529818000000000     0.079105000000000
    -0.111553693439120     0.061400377116440    -0.162996744021401
1 84
     0.118249542412564     0.083825344431294     0.010842042552810
     0.167477500000000     0.130965500000000     0.016859000000000
     0.033603415896237     0.020360869244011    -0.016220936418549
1 85
    -0.086455755061083     0.074478470325431     0.091867319642771
     0.038350000000000     0.002475500000000     0.236641000000000
    -0.030669576537498     0.068589340933466     0.541043733260717
1 86
     0.021338006303182    -0.003423443619399     0.005529763218595
     0.000344500000000    -0.002262000000000     0.000960000000000
     0.008058054668561     0.003660220766005     0.027017061848304
1 87
    -0.014038043561225     0.017231322152766    -0.041074378060552
    -0.055797000000000     0.028859500000000    -0.109467000000000
     0.047496606766469    -0.028606651711346     0.085825344738045
1 88
    -0.001451824814869    -0.000552290585251    -0.003783365681414
    -0.001323500000000    -0.001944000000000    -0.002194500000000
    -0.000690749568471    -0.000912572591009    -0.004151130408535
1 89
    -0.028314071240897    -0.068166457269874    -0.465531352874960
     0.154614000000000    -0.299107500000000    -0.414780000000000
    -0.356609325365604     0.080908891866904     0.602792368987412
1 90
     0.152577491980453    -0.026423394920825     0.101895456805927
    -0.041616000000000    -0.090642000000000    -0.046326500000000
     0.288177843932241    -0.061242256374472     0.119422540863101
1 91
    -0.003704018254574     0.005550536560203    -0.007526580019835
    -0.083573500000000     0.123199500000000     0.051620000000000
    -0.085626475745985     0.074152797005156     0.049576195353285
1 92
     0.010693086071040     0.013929229085446     0.012065305589334
     0.015831500000000     0.018187000000000     0.013344500000000
     0.011155308210683     0.014270929000668     0.007538865659264
1 93
    -2.214323439815407     0.785348803055228    -0.288958361877617
     0.757760500000000    -2.035535000000000     0.078840500000001
    -0.644530996163771    -0.231844700727274    -2.593925101651412
1 94
     0.316782979166366    -0.060185069309729    -0.088031147953336
    -0.061703000000000    -0.095604500000000     0.039037000000000
    -0.225929088592914     0.049127522129960     0.022235450359851
1 95
    -0.063257730134466    -0.037327351120263     0.033665296094191
    -0.075171500000000     0.203778500000000    -0.020550000000000
     0.075783536772943    -0.082492961699533    -0.031918652668028
1 96
     0.013975722136031     0.022753172905563    -0.008857469476689
     0.016851000000000     0.014701000000000    -0.008034000000000
    -0.004562106283021    -0.001716803532725    -0.001109516067936
9 1
     1.924950435050316     0.027193940568098     1.048143820935313
    -0.040871500000000    -1.640976999999999     2.325674500000000
     1.362394660020400     3.382302021725700    -2.356634133541682
9 2
    -0.091029734159134     0.088154341314284    -0.119076179507813
    -0.005414000000000    -0.047111500000000     0.044262500000000
    -0.075822871687157     0.066916934602075    -0.056631851294289
9 3
     0.575777108563279     0.681782494666767     0.751850066996856
    -0.340420500000000    -1.577208000000000    -1.479855000000000
    -0.144283353817211    -1.331246108453647    -1.067956105626092
9 4
    -0.053526389400651    -0.069394184704625    -0.066006032017102
    -0.031254500000000    -0.035802500000000    -0.031190500000000
    -0.001662998838812     0.000853920809445    -0.002743397564822
9 5
     1.924951007506241     0.040876941168821     1.362355609957679
    -0.027200000000000    -1.640977000000001    -3.382202000000000
     1.048143454322107    -2.325755286869691    -2.356620475581353
9 6
    -0.091025967220141     0.005414006460035    -0.075826217402773
    -0.088153500000000    -0.047111000000000    -0.066916500000000
    -0.119070446974430    -0.044261139719652    -0.056632003010590
9 7
     0.575786816506454     0.340408626457386    -0.144280108988388
    -0.681777000000000    -1.577192500000000     1.331253000000000
     0.751832821647534     1.479819852386302    -1.067931039130289
9 8
    -0.053532682481594     0.031251764863575    -0.001661342445691
     0.069393500000000    -0.035803000000000    -0.000853500000000
    -0.066005397845353     0.031189426638034    -0.002744073439266
9 9
    19.931177823861745     0.595568869025125     0.259710143892699
     0.593286000000000    20.339109499999999    -0.210467499999996
     0.261262151728250    -0.211189501375800    20.434428900756533
9 10
    -0.894112255592413    -0.127521306783110     0.021917234503747
    -0.127488500000000     0.250596000000000     0.030301500000000
     0.021912471130030     0.030297011931500     0.083023842539250
9 11
     0.187849705027435     0.091820690939837    -0.055464497498679
     0.091831000000000    -0.477867000000000    -0.034906500000000
    -0.055465002273608    -0.034900680769193     0.118399741363962
9 12
     0.043857499115448    -0.006285614346898     0.000425709883021
    -0.006284500000000     0.046414000000000     0.000227000000000
     0.000426219445985     0.000226728014423    -0.003508297556062
9 13
     0.165216738215786    -0.074146446389051     0.046452612048139
    -0.074146000000000     0.133480000000000     0.036938000000000
     0.046442422808870     0.036945214976072    -0.614640885567307
9 14
     0.008897052395017     0.000790145348043     0.012564496359592
     0.000790500000000    -0.005495000000000     0.000295000000000
     0.012565636926559     0.000295093777549     0.009338885367380
9 15
    -0.001585883941083     0.000364114845841    -0.007605659066901
     0.000363500000000     0.037079000000000    -0.001539000000000
    -0.007605945249602    -0.001539453423747     0.040284047155044
9 16
    -0.000107159120881     0.000538166742336    -0.000290769756874
     0.000538500000000    -0.000149000000000     0.000398500000000
    -0.000290534678013     0.000398125255166    -0.000267007134456
9 17
    -2.130673884942706     0.615665367461043     2.361402879208615
     0.615697000000000     2.150875000000000    -0.316273000000000
     2.361400216140702    -0.316248738850876    -1.414262699760249
9 18
    -2.542245907268857     0.092378555690330    -3.631190471090476
     0.092340499999999     1.523420000000000    -1.511554500000000
    -3.631236450078801    -1.511549746241253    -1.114657711223846
9 19
    -0.078370475179714    -0.097397233703664     0.067250463389887
    -0.097400000000000    -0.156372000000000     0.047779000000000
     0.067250319703325     0.047778225939717    -0.059696293044848
9 20
    -0.025537870132330     0.028325047532679    -0.018814159642170
     0.028327000000000    -0.011219000000000     0.034374000000000
    -0.018813499022575     0.034368824999163     0.029109039554023
9 21
    -0.921202850323265     0.563046259073429    -1.858402965216619
     0.563060000000000     1.923433500000000     0.613697999999999
    -1.858455195126578     0.613695084205087    -3.166030754074264
9 22
    -0.293071000475567    -0.010383903490465     0.283758508677109
    -0.010382000000000     0.242617000000000     0.077989500000000
     0.283791349286593     0.077999840154413    -0.034526170931137
9 23
    -0.029030278037600    -0.070851678588836    -0.043413071070227
    -0.070853000000000    -0.086374000000000    -0.093109000000000
    -0.043413140009922    -0.093107514927085    -0.081485194293632
9 24
    -0.018556837683759     0.016818574224978     0.005875776712251
     0.016817500000000    -0.022094000000000    -0.004956000000000
     0.005875481936627    -0.004956499573391    -0.004917364313407
9 25
    -1.398875175534984     2.197784062219959    -0.666077427871915
     2.694040000000000    -2.488802500000000     0.432107500000001
    -0.947739550267666     0.669146180131851     2.013753266431816
9 26
    -2.359509712129704    -2.837019112118844     1.147702716096155
    -1.690468500000000    -1.885089000000000     0.660772000000000
    -0.100442762438222    -0.288831283150967     0.250160475433336
9 27
    -1.398919262160778    -2.693999803311874    -0.947774423111605
    -2.197767000000000    -2.488723500000000    -0.669144500000000
    -0.666067152087915    -0.432100822125926     2.013751103105398
9 28
    -2.359485917216384     1.690456182812482    -0.100430566261960
     2.836987500000001    -1.885083500000000     0.288818000000000
     1.147667677786335    -0.660760228606892     0.250153304955491
9 29
    -0.048768808391975     0.024387994003015     0.028201175914347
     0.071859500000000    -0.059634500000000    -0.013826500000000
     0.006448834007645    -0.003406218701772    -0.106594372747302
9 30
    -0.039802450035020    -0.040683080599529    -0.096872294694458
    -0.027131000000000    -0.027324000000000    -0.095335000000000
    -0.052601616883752    -0.084615934003389    -0.197815486316835
9 31
    -0.048769784417019    -0.071858627000639     0.006446929643745
    -0.024387500000000    -0.059634500000000     0.003405500000000
     0.028200906214415     0.013825148444737    -0.106591300872728
9 32
    -0.039801455567203     0.027128952742699    -0.052596884483890
     0.040685000000000    -0.027321500000000     0.084615000000000
    -0.096872662221053     0.095328574087629    -0.197802035028412
9 33
     0.158853724617405    -0.120970417129940    -0.106950933435226
    -0.088974000000000     0.002810500000000     0.062010500000000
    -0.126003771153192     0.097339746767733     0.074102959718382
9 34
    -0.247003942566609     0.317742220343347     0.465714901376292
     0.107830500000000    -0.017994500000000     0.442509500000000
     0.178237992221741     0.381708897533502     0.353110019959726
9 35
     0.062578541643431     0.070074411100438    -0.047252601100275
     0.032743500000000     0.037078000000000    -0.036301000000000
    -0.033528710530418    -0.051451823254342     0.031520322055556
9 36
    -0.039222859850074    -0.135118602284198     0.069164525383272
    -0.162983000000000     0.202079000000000    -0.147899000000000
     0.217235228199590    -0.462388250078359     0.125069089870261
9 37
     0.247168989090275    -0.129568317341744     0.172315712596564
    -0.503838500000000     0.066638500000000    -0.331097000000000
     0.497418222053272    -0.233065754689504     0.102102345451917
9 38
    -0.067996831377328     0.146944543092891    -0.418046127674091
     0.183439500000000    -0.067590000000000    -0.293248000000000
    -0.203153109403554    -0.033983644403273    -0.087858687293829
9 39
     0.105914412361716     0.147087485516904     0.160859155546308
     0.107195000000000     0.111111000000000     0.158302000000000
     0.105044846617275     0.147014955107859     0.015492157551136
9 40
     0.147197224734633    -0.301768734008318    -0.366688728023601
    -0.301297500000000     0.475237000000000     0.417403500000000
    -0.232002669675260     0.239874308674973     0.157023819476984
9 41
     0.804368807900999    -0.156332385816436    -0.052725362688725
    -0.489625000000000    -0.308171500000000     0.008514000000000
    -0.157329193671082     0.024185854697633    -0.401740815823568
9 42
    -3.982611475951416    -1.837259831586386    -0.285393917703884
    -1.538091500000000    -1.811261500000000     0.151523500000000
    -0.334912890335900     0.180061633826582    -2.221108664096536
9 43
     0.110732014569436     0.123358028111454    -0.027026318839649
     0.081823500000000     0.138200500000000    -0.019308500000000
    -0.003211252213453    -0.008164297599442    -0.036904972539218
9 44
     0.010883687305342    -0.379105979830211     0.156409071230419
    -0.077074500000000     0.490252000000000    -0.173606500000000
     0.001716508614836     0.099246771818855    -0.117208357530276
9 45
     0.048676649115865    -0.033518764202420     0.119013062383679
    -0.022332500000000    -0.004972000000000    -0.045943000000000
     0.072929092079183    -0.047106835084166     0.196184993747594
9 46
    -0.003511873395024     0.024198934187639    -0.003592044832323
     0.008340000000000    -0.023485500000000    -0.041807500000000
    -0.002416911876406     0.021069686357927     0.120153468987551
9 47
    -0.001941460502010    -0.002493805468792    -0.002595799821484
     0.003147000000000     0.002111000000000     0.002692500000000
     0.001827131777809    -0.002212775727513     0.001899079864957
9 48
     0.001768907531454    -0.004612556547048    -0.004677473348041
    -0.010546000000000     0.011427500000000     0.001205500000000
    -0.004089209766598     0.001841755461739     0.016003701668574
9 49
    -0.983562587111268    -0.252212434782956     0.182791004986804
     0.176854500000000    -2.827087500000000     0.989192000000000
     0.198433649299854     0.232455072039769    -2.261793222208802
9 50
     0.266833705035994    -0.004126820856832    -0.114610291657890