nqpoint: 1      
natom:   12     
reciprocal_lattice:
- [   0.19486851,   0.00000000,   0.03373167 ] # a*
- [   0.00000000,   0.19174653,   0.00000000 ] # b*
- [  -0.00088511,   0.00000000,   0.19161538 ] # c*
phonon:
- q-position: [    0.0000000,    0.0000000,    0.0000000 ]
  dynamical_matrix:
  - [    0.2131148987,   -0.0000000000,   -0.0052618780,    0.0000000000,    0.0030526873,    0.0000000000,    0.0516569170,    0.0000000000,   -0.0125591151,    0.0000000000,    0.0302060066,    0.0000000000,   -0.0843411006,    0.0000000000,    0.0186772200,    0.0000000000,   -0.0074695645,    0.0000000000,   -0.0661962762,    0.0000000000,   -0.0124704463,    0.0000000000,   -0.0310616392,    0.0000000000,   -0.0788248864,    0.0000000000,    0.0592889781,    0.0000000000,   -0.0026288444,    0.0000000000,    0.0096181780,    0.0000000000,    0.0001470654,    0.0000000000,   -0.0018555013,    0.0000000000,    0.0067010757,    0.0000000000,    0.0067662665,    0.0000000000,   -0.0063340943,    0.0000000000,   -0.0260094668,    0.0000000000,   -0.0060579547,    0.0000000000,    0.0105798144,    0.0000000000,   -0.0207792735,    0.0000000000,    0.0039959841,    0.0000000000,   -0.0072047973,    0.0000000000,   -0.0395002425,    0.0000000000,    0.0168748033,    0.0000000000,    0.0202170613,    0.0000000000,   -0.0764279594,    0.0000000000,   -0.0699178115,    0.0000000000,    0.0184471633,    0.0000000000,   -0.0475192695,    0.0000000000,    0.0166348431,    0.0000000000,   -0.0186260564,    0.0000000000 ]
  - [   -0.0052618780,   -0.0000000000,    0.2227831218,   -0.0000000000,    0.0019634113,    0.0000000000,    0.0125591151,    0.0000000000,   -0.0723733064,    0.0000000000,    0.0138102206,    0.0000000000,   -0.0186772200,    0.0000000000,   -0.0977989674,    0.0000000000,   -0.0075792915,    0.0000000000,   -0.0124704463,    0.0000000000,    0.0609958618,    0.0000000000,    0.0126286532,    0.0000000000,    0.0535219612,    0.0000000000,   -0.0394108649,    0.0000000000,    0.0030569283,    0.0000000000,    0.0163832723,    0.0000000000,    0.0211852956,    0.0000000000,   -0.0071112152,    0.0000000000,    0.0031644515,    0.0000000000,    0.0110402736,    0.0000000000,   -0.0142224492,    0.0000000000,    0.0070230379,    0.0000000000,   -0.0468306138,    0.0000000000,   -0.0018500560,    0.0000000000,   -0.0086375203,    0.0000000000,   -0.0534522809,    0.0000000000,   -0.0376385955,    0.0000000000,    0.0202068738,    0.0000000000,   -0.0397011241,    0.0000000000,   -0.0110995712,    0.0000000000,   -0.0525830530,    0.0000000000,   -0.0675070594,    0.0000000000,    0.0271783907,    0.0000000000,    0.0178777226,    0.0000000000,   -0.0565654016,    0.0000000000,   -0.0080353289,    0.0000000000 ]
  - [    0.0030526873,   -0.0000000000,    0.0019634113,   -0.0000000000,    0.2199756558,   -0.0000000000,    0.0302060066,    0.0000000000,   -0.0138102206,    0.0000000000,   -0.0763822358,    0.0000000000,   -0.0074695645,    0.0000000000,    0.0075792915,    0.0000000000,    0.0429603499,    0.0000000000,   -0.0310616392,    0.0000000000,    0.0126286532,    0.0000000000,   -0.0640891339,    0.0000000000,   -0.0111360625,    0.0000000000,   -0.0070425323,    0.0000000000,   -0.0639420243,    0.0000000000,    0.0105548038,    0.0000000000,   -0.0022263688,    0.0000000000,    0.0201685400,    0.0000000000,    0.0024077047,    0.0000000000,    0.0043949236,    0.0000000000,   -0.0236808081,    0.0000000000,   -0.0037583768,    0.0000000000,    0.0104533180,    0.0000000000,   -0.0287457628,    0.0000000000,    0.0037262580,    0.0000000000,   -0.0192897756,    0.0000000000,   -0.0429396944,    0.0000000000,    0.0303484418,    0.0000000000,   -0.0213990609,    0.0000000000,   -0.0712833853,    0.0000000000,    0.0051006642,    0.0000000000,    0.0192945513,    0.0000000000,   -0.0342123965,    0.0000000000,   -0.0246491691,    0.0000000000,   -0.0041473453,    0.0000000000,   -0.0477758865,    0.0000000000 ]
  - [    0.0516569170,   -0.0000000000,    0.0125591151,   -0.0000000000,    0.0302060066,   -0.0000000000,    0.2131148987,   -0.0000000000,    0.0052618780,    0.0000000000,    0.0030526873,    0.0000000000,   -0.0661962762,    0.0000000000,    0.0124704463,    0.0000000000,   -0.0310616392,    0.0000000000,   -0.0843411006,    0.0000000000,   -0.0186772200,    0.0000000000,   -0.0074695645,    0.0000000000,    0.0096181780,    0.0000000000,   -0.0001470654,    0.0000000000,   -0.0018555013,    0.0000000000,   -0.0788248864,    0.0000000000,   -0.0592889781,    0.0000000000,   -0.0026288444,    0.0000000000,   -0.0207792735,    0.0000000000,   -0.0039959841,    0.0000000000,   -0.0072047973,    0.0000000000,   -0.0395002425,    0.0000000000,   -0.0168748033,    0.0000000000,    0.0202170613,    0.0000000000,    0.0067010757,    0.0000000000,   -0.0067662665,    0.0000000000,   -0.0063340943,    0.0000000000,   -0.0260094668,    0.0000000000,    0.0060579547,    0.0000000000,    0.0105798144,    0.0000000000,   -0.0475192695,    0.0000000000,   -0.0166348431,    0.0000000000,   -0.0186260564,    0.0000000000,   -0.0764279594,    0.0000000000,    0.0699178115,    0.0000000000,    0.0184471633,    0.0000000000 ]
  - [   -0.0125591151,   -0.0000000000,   -0.0723733064,   -0.0000000000,   -0.0138102206,   -0.0000000000,    0.0052618780,   -0.0000000000,    0.2227831218,   -0.0000000000,   -0.0019634113,    0.0000000000,    0.0124704463,    0.0000000000,    0.0609958618,    0.0000000000,   -0.0126286532,    0.0000000000,    0.0186772200,    0.0000000000,   -0.0977989674,    0.0000000000,    0.0075792915,    0.0000000000,   -0.0163832723,    0.0000000000,    0.0211852956,    0.0000000000,    0.0071112152,    0.0000000000,   -0.0535219612,    0.0000000000,   -0.0394108649,    0.0000000000,   -0.0030569283,    0.0000000000,    0.0086375203,    0.0000000000,   -0.0534522809,    0.0000000000,    0.0376385955,    0.0000000000,   -0.0202068738,    0.0000000000,   -0.0397011241,    0.0000000000,    0.0110995712,    0.0000000000,   -0.0031644515,    0.0000000000,    0.0110402736,    0.0000000000,    0.0142224492,    0.0000000000,   -0.0070230379,    0.0000000000,   -0.0468306138,    0.0000000000,    0.0018500560,    0.0000000000,   -0.0178777226,    0.0000000000,   -0.0565654016,    0.0000000000,    0.0080353289,    0.0000000000,    0.0525830530,    0.0000000000,   -0.0675070594,    0.0000000000,   -0.0271783907,    0.0000000000 ]
  - [    0.0302060066,   -0.0000000000,    0.0138102206,   -0.0000000000,   -0.0763822358,   -0.0000000000,    0.0030526873,   -0.0000000000,   -0.0019634113,   -0.0000000000,    0.2199756558,   -0.0000000000,   -0.0310616392,    0.0000000000,   -0.0126286532,    0.0000000000,   -0.0640891339,    0.0000000000,   -0.0074695645,    0.0000000000,   -0.0075792915,    0.0000000000,    0.0429603499,    0.0000000000,    0.0105548038,    0.0000000000,    0.0022263688,    0.0000000000,    0.0201685400,    0.0000000000,   -0.0111360625,    0.0000000000,    0.0070425323,    0.0000000000,   -0.0639420243,    0.0000000000,    0.0037262580,    0.0000000000,    0.0192897756,    0.0000000000,   -0.0429396944,    0.0000000000,    0.0303484418,    0.0000000000,    0.0213990609,    0.0000000000,   -0.0712833853,    0.0000000000,    0.0024077047,    0.0000000000,   -0.0043949236,    0.0000000000,   -0.0236808081,    0.0000000000,   -0.0037583768,    0.0000000000,   -0.0104533180,    0.0000000000,   -0.0287457628,    0.0000000000,   -0.0246491691,    0.0000000000,    0.0041473453,    0.0000000000,   -0.0477758865,    0.0000000000,    0.0051006642,    0.0000000000,   -0.0192945513,    0.0000000000,   -0.0342123965,    0.0000000000 ]
  - [   -0.0843411006,   -0.0000000000,   -0.0186772200,   -0.0000000000,   -0.0074695645,   -0.0000000000,   -0.0661962762,   -0.0000000000,    0.0124704463,   -0.0000000000,   -0.0310616392,   -0.0000000000,    0.2131148987,   -0.0000000000,    0.0052618780,    0.0000000000,    0.0030526873,    0.0000000000,    0.0516569170,    0.0000000000,    0.0125591151,    0.0000000000,    0.0302060066,    0.0000000000,   -0.0764279594,    0.0000000000,    0.0699178115,    0.0000000000,    0.0184471633,    0.0000000000,   -0.0475192695,    0.0000000000,   -0.0166348431,    0.0000000000,   -0.0186260564,    0.0000000000,   -0.0260094668,    0.0000000000,    0.0060579547,    0.0000000000,    0.0105798144,    0.0000000000,    0.0067010757,    0.0000000000,   -0.0067662665,    0.0000000000,   -0.0063340943,    0.0000000000,   -0.0395002425,    0.0000000000,   -0.0168748033,    0.0000000000,    0.0202170613,    0.0000000000,   -0.0207792735,    0.0000000000,   -0.0039959841,    0.0000000000,   -0.0072047973,    0.0000000000,   -0.0788248864,    0.0000000000,   -0.0592889781,    0.0000000000,   -0.0026288444,    0.0000000000,    0.0096181780,    0.0000000000,   -0.0001470654,    0.0000000000,   -0.0018555013,    0.0000000000 ]
  - [    0.0186772200,   -0.0000000000,   -0.0977989674,   -0.0000000000,    0.0075792915,   -0.0000000000,    0.0124704463,   -0.0000000000,    0.0609958618,   -0.0000000000,   -0.0126286532,   -0.0000000000,    0.0052618780,   -0.0000000000,    0.2227831218,   -0.0000000000,   -0.0019634113,    0.0000000000,   -0.0125591151,    0.0000000000,   -0.0723733064,    0.0000000000,   -0.0138102206,    0.0000000000,    0.0525830530,    0.0000000000,   -0.0675070594,    0.0000000000,   -0.0271783907,    0.0000000000,   -0.0178777226,    0.0000000000,   -0.0565654016,    0.0000000000,    0.0080353289,    0.0000000000,   -0.0070230379,    0.0000000000,   -0.0468306138,    0.0000000000,    0.0018500560,    0.0000000000,   -0.0031644515,    0.0000000000,    0.0110402736,    0.0000000000,    0.0142224492,    0.0000000000,   -0.0202068738,    0.0000000000,   -0.0397011241,    0.0000000000,    0.0110995712,    0.0000000000,    0.0086375203,    0.0000000000,   -0.0534522809,    0.0000000000,    0.0376385955,    0.0000000000,   -0.0535219612,    0.0000000000,   -0.0394108649,    0.0000000000,   -0.0030569283,    0.0000000000,   -0.0163832723,    0.0000000000,    0.0211852956,    0.0000000000,    0.0071112152,    0.0000000000 ]
  - [   -0.0074695645,   -0.0000000000,   -0.0075792915,   -0.0000000000,    0.0429603499,   -0.0000000000,   -0.0310616392,   -0.0000000000,   -0.0126286532,   -0.0000000000,   -0.0640891339,   -0.0000000000,    0.0030526873,   -0.0000000000,   -0.0019634113,   -0.0000000000,    0.2199756558,   -0.0000000000,    0.0302060066,    0.0000000000,    0.0138102206,    0.0000000000,   -0.0763822358,    0.0000000000,    0.0051006642,    0.0000000000,   -0.0192945513,    0.0000000000,   -0.0342123965,    0.0000000000,   -0.0246491691,    0.0000000000,    0.0041473453,    0.0000000000,   -0.0477758865,    0.0000000000,   -0.0037583768,    0.0000000000,   -0.0104533180,    0.0000000000,   -0.0287457628,    0.0000000000,    0.0024077047,    0.0000000000,   -0.0043949236,    0.0000000000,   -0.0236808081,    0.0000000000,    0.0303484418,    0.0000000000,    0.0213990609,    0.0000000000,   -0.0712833853,    0.0000000000,    0.0037262580,    0.0000000000,    0.0192897756,    0.0000000000,   -0.0429396944,    0.0000000000,   -0.0111360625,    0.0000000000,    0.0070425323,    0.0000000000,   -0.0639420243,    0.0000000000,    0.0105548038,    0.0000000000,    0.0022263688,    0.0000000000,    0.0201685400,    0.0000000000 ]
  - [   -0.0661962762,   -0.0000000000,   -0.0124704463,   -0.0000000000,   -0.0310616392,   -0.0000000000,   -0.0843411006,   -0.0000000000,    0.0186772200,   -0.0000000000,   -0.0074695645,   -0.0000000000,    0.0516569170,   -0.0000000000,   -0.0125591151,   -0.0000000000,    0.0302060066,   -0.0000000000,    0.2131148987,   -0.0000000000,   -0.0052618780,    0.0000000000,    0.0030526873,    0.0000000000,   -0.0475192695,    0.0000000000,    0.0166348431,    0.0000000000,   -0.0186260564,    0.0000000000,   -0.0764279594,    0.0000000000,   -0.0699178115,    0.0000000000,    0.0184471633,    0.0000000000,   -0.0395002425,    0.0000000000,    0.0168748033,    0.0000000000,    0.0202170613,    0.0000000000,   -0.0207792735,    0.0000000000,    0.0039959841,    0.0000000000,   -0.0072047973,    0.0000000000,   -0.0260094668,    0.0000000000,   -0.0060579547,    0.0000000000,    0.0105798144,    0.0000000000,    0.0067010757,    0.0000000000,    0.0067662665,    0.0000000000,   -0.0063340943,    0.0000000000,    0.0096181780,    0.0000000000,    0.0001470654,    0.0000000000,   -0.0018555013,    0.0000000000,   -0.0788248864,    0.0000000000,    0.0592889781,    0.0000000000,   -0.0026288444,    0.0000000000 ]
  - [   -0.0124704463,   -0.0000000000,    0.0609958618,   -0.0000000000,    0.0126286532,   -0.0000000000,   -0.0186772200,   -0.0000000000,   -0.0977989674,   -0.0000000000,   -0.0075792915,   -0.0000000000,    0.0125591151,   -0.0000000000,   -0.0723733064,   -0.0000000000,    0.0138102206,   -0.0000000000,   -0.0052618780,   -0.0000000000,    0.2227831218,   -0.0000000000,    0.0019634113,    0.0000000000,    0.0178777226,    0.0000000000,   -0.0565654016,    0.0000000000,   -0.0080353289,    0.0000000000,   -0.0525830530,    0.0000000000,   -0.0675070594,    0.0000000000,    0.0271783907,    0.0000000000,    0.0202068738,    0.0000000000,   -0.0397011241,    0.0000000000,   -0.0110995712,    0.0000000000,   -0.0086375203,    0.0000000000,   -0.0534522809,    0.0000000000,   -0.0376385955,    0.0000000000,    0.0070230379,    0.0000000000,   -0.0468306138,    0.0000000000,   -0.0018500560,    0.0000000000,    0.0031644515,    0.0000000000,    0.0110402736,    0.0000000000,   -0.0142224492,    0.0000000000,    0.0163832723,    0.0000000000,    0.0211852956,    0.0000000000,   -0.0071112152,    0.0000000000,    0.0535219612,    0.0000000000,   -0.0394108649,    0.0000000000,    0.0030569283,    0.0000000000 ]
  - [   -0.0310616392,   -0.0000000000,    0.0126286532,   -0.0000000000,   -0.0640891339,   -0.0000000000,   -0.0074695645,   -0.0000000000,    0.0075792915,   -0.0000000000,    0.0429603499,   -0.0000000000,    0.0302060066,   -0.0000000000,   -0.0138102206,   -0.0000000000,   -0.0763822358,   -0.0000000000,    0.0030526873,   -0.0000000000,    0.0019634113,   -0.0000000000,    0.2199756558,   -0.0000000000,   -0.0246491691,    0.0000000000,   -0.0041473453,    0.0000000000,   -0.0477758865,    0.0000000000,    0.0051006642,    0.0000000000,    0.0192945513,    0.0000000000,   -0.0342123965,    0.0000000000,    0.0303484418,    0.0000000000,   -0.0213990609,    0.0000000000,   -0.0712833853,    0.0000000000,    0.0037262580,    0.0000000000,   -0.0192897756,    0.0000000000,   -0.0429396944,    0.0000000000,   -0.0037583768,    0.0000000000,    0.0104533180,    0.0000000000,   -0.0287457628,    0.0000000000,    0.0024077047,    0.0000000000,    0.0043949236,    0.0000000000,   -0.0236808081,    0.0000000000,    0.0105548038,    0.0000000000,   -0.0022263688,    0.0000000000,    0.0201685400,    0.0000000000,   -0.0111360625,    0.0000000000,   -0.0070425323,    0.0000000000,   -0.0639420243,    0.0000000000 ]
  - [   -0.0788248864,   -0.0000000000,    0.0535219612,   -0.0000000000,   -0.0111360625,   -0.0000000000,    0.0096181780,   -0.0000000000,   -0.0163832723,   -0.0000000000,    0.0105548038,   -0.0000000000,   -0.0764279594,   -0.0000000000,    0.0525830530,   -0.0000000000,    0.0051006642,   -0.0000000000,   -0.0475192695,   -0.0000000000,    0.0178777226,   -0.0000000000,   -0.0246491691,   -0.0000000000,    0.9489121861,   -0.0000000000,   -0.4904962418,    0.0000000000,    0.0707232213,    0.0000000000,    0.0304932382,    0.0000000000,    0.0067182510,    0.0000000000,    0.0405033560,    0.0000000000,   -0.2858254216,    0.0000000000,    0.0336738768,    0.0000000000,   -0.0781825361,    0.0000000000,   -0.0896010856,    0.0000000000,    0.0485178849,    0.0000000000,   -0.0280752175,    0.0000000000,   -0.1076051318,    0.0000000000,   -0.0331582889,    0.0000000000,   -0.0388096234,    0.0000000000,   -0.1100254140,    0.0000000000,    0.0263944597,    0.0000000000,    0.0127680411,    0.0000000000,    0.0807718771,    0.0000000000,    0.0725195144,    0.0000000000,   -0.0244073561,    0.0000000000,   -0.0059406655,    0.0000000000,    0.0789260084,    0.0000000000,    0.0935438605,    0.0000000000 ]
  - [    0.0592889781,   -0.0000000000,   -0.0394108649,   -0.0000000000,   -0.0070425323,   -0.0000000000,   -0.0001470654,   -0.0000000000,    0.0211852956,   -0.0000000000,    0.0022263688,   -0.0000000000,    0.0699178115,   -0.0000000000,   -0.0675070594,   -0.0000000000,   -0.0192945513,   -0.0000000000,    0.0166348431,   -0.0000000000,   -0.0565654016,   -0.0000000000,   -0.0041473453,   -0.0000000000,   -0.4904962418,   -0.0000000000,    0.7796785817,   -0.0000000000,    0.2204313217,    0.0000000000,   -0.0067182510,    0.0000000000,    0.0058683138,    0.0000000000,   -0.0139119850,    0.0000000000,    0.0708009307,    0.0000000000,    0.0395414828,    0.0000000000,    0.0347911847,    0.0000000000,    0.0490436503,    0.0000000000,   -0.1059125498,    0.0000000000,   -0.0303251312,    0.0000000000,    0.0111715646,    0.0000000000,    0.0533126867,    0.0000000000,   -0.0197253424,    0.0000000000,    0.0119184130,    0.0000000000,   -0.1100768310,    0.0000000000,   -0.0096811254,    0.0000000000,   -0.0725195144,    0.0000000000,   -0.2277173832,    0.0000000000,   -0.0018404374,    0.0000000000,    0.0789260084,    0.0000000000,   -0.0949472793,    0.0000000000,   -0.1122765561,    0.0000000000 ]
  - [   -0.0026288444,   -0.0000000000,    0.0030569283,   -0.0000000000,   -0.0639420243,   -0.0000000000,   -0.0018555013,   -0.0000000000,    0.0071112152,   -0.0000000000,    0.0201685400,   -0.0000000000,    0.0184471633,   -0.0000000000,   -0.0271783907,   -0.0000000000,   -0.0342123965,   -0.0000000000,   -0.0186260564,   -0.0000000000,   -0.0080353289,   -0.0000000000,   -0.0477758865,   -0.0000000000,    0.0707232213,   -0.0000000000,    0.2204313217,   -0.0000000000,    0.6575978527,   -0.0000000000,    0.0405033560,    0.0000000000,    0.0139119850,    0.0000000000,   -0.2214680603,    0.0000000000,   -0.0821489635,    0.0000000000,    0.0345577299,    0.0000000000,    0.0121875570,    0.0000000000,   -0.0141454593,    0.0000000000,   -0.0959537063,    0.0000000000,   -0.0790504157,    0.0000000000,   -0.0337739949,    0.0000000000,    0.0150774789,    0.0000000000,   -0.0633249527,    0.0000000000,   -0.0391669720,    0.0000000000,   -0.0178014775,    0.0000000000,    0.0681728422,    0.0000000000,   -0.0244073561,    0.0000000000,    0.0018404374,    0.0000000000,   -0.0177613993,    0.0000000000,    0.0935438605,    0.0000000000,   -0.1122765561,    0.0000000000,   -0.0560587361,    0.0000000000 ]
  - [    0.0096181780,   -0.0000000000,    0.0163832723,   -0.0000000000,    0.0105548038,   -0.0000000000,   -0.0788248864,   -0.0000000000,   -0.0535219612,   -0.0000000000,   -0.0111360625,   -0.0000000000,   -0.0475192695,   -0.0000000000,   -0.0178777226,   -0.0000000000,   -0.0246491691,   -0.0000000000,   -0.0764279594,   -0.0000000000,   -0.0525830530,   -0.0000000000,    0.0051006642,   -0.0000000000,    0.0304932382,   -0.0000000000,   -0.0067182510,   -0.0000000000,    0.0405033560,   -0.0000000000,    0.9489121861,   -0.0000000000,    0.4904962418,    0.0000000000,    0.0707232213,    0.0000000000,   -0.1076051318,    0.0000000000,    0.0331582889,    0.0000000000,   -0.0388096234,    0.0000000000,   -0.1100254140,    0.0000000000,   -0.0263944597,    0.0000000000,    0.0127680411,    0.0000000000,   -0.2858254216,    0.0000000000,   -0.0336738768,    0.0000000000,   -0.0781825361,    0.0000000000,   -0.0896010856,    0.0000000000,   -0.0485178849,    0.0000000000,   -0.0280752175,    0.0000000000,   -0.0059406655,    0.0000000000,   -0.0789260084,    0.0000000000,    0.0935438605,    0.0000000000,    0.0807718771,    0.0000000000,   -0.0725195144,    0.0000000000,   -0.0244073561,    0.0000000000 ]
  - [    0.0001470654,   -0.0000000000,    0.0211852956,   -0.0000000000,   -0.0022263688,   -0.0000000000,   -0.0592889781,   -0.0000000000,   -0.0394108649,   -0.0000000000,    0.0070425323,   -0.0000000000,   -0.0166348431,   -0.0000000000,   -0.0565654016,   -0.0000000000,    0.0041473453,   -0.0000000000,   -0.0699178115,   -0.0000000000,   -0.0675070594,   -0.0000000000,    0.0192945513,   -0.0000000000,    0.0067182510,   -0.0000000000,    0.0058683138,   -0.0000000000,    0.0139119850,   -0.0000000000,    0.4904962418,   -0.0000000000,    0.7796785817,   -0.0000000000,   -0.2204313217,    0.0000000000,   -0.0111715646,    0.0000000000,    0.0533126867,    0.0000000000,    0.0197253424,    0.0000000000,   -0.0119184130,    0.0000000000,   -0.1100768310,    0.0000000000,    0.0096811254,    0.0000000000,   -0.0708009307,    0.0000000000,    0.0395414828,    0.0000000000,   -0.0347911847,    0.0000000000,   -0.0490436503,    0.0000000000,   -0.1059125498,    0.0000000000,    0.0303251312,    0.0000000000,   -0.0789260084,    0.0000000000,   -0.0949472793,    0.0000000000,    0.1122765561,    0.0000000000,    0.0725195144,    0.0000000000,   -0.2277173832,    0.0000000000,    0.0018404374,    0.0000000000 ]
  - [   -0.0018555013,   -0.0000000000,   -0.0071112152,   -0.0000000000,    0.0201685400,   -0.0000000000,   -0.0026288444,   -0.0000000000,   -0.0030569283,   -0.0000000000,   -0.0639420243,   -0.0000000000,   -0.0186260564,   -0.0000000000,    0.0080353289,   -0.0000000000,   -0.0477758865,   -0.0000000000,    0.0184471633,   -0.0000000000,    0.0271783907,   -0.0000000000,   -0.0342123965,   -0.0000000000,    0.0405033560,   -0.0000000000,   -0.0139119850,   -0.0000000000,   -0.2214680603,   -0.0000000000,    0.0707232213,   -0.0000000000,   -0.2204313217,   -0.0000000000,    0.6575978527,   -0.0000000000,   -0.0337739949,    0.0000000000,   -0.0150774789,    0.0000000000,   -0.0633249527,    0.0000000000,   -0.0391669720,    0.0000000000,    0.0178014775,    0.0000000000,    0.0681728422,    0.0000000000,   -0.0821489635,    0.0000000000,   -0.0345577299,    0.0000000000,    0.0121875570,    0.0000000000,   -0.0141454593,    0.0000000000,    0.0959537063,    0.0000000000,   -0.0790504157,    0.0000000000,    0.0935438605,    0.0000000000,    0.1122765561,    0.0000000000,   -0.0560587361,    0.0000000000,   -0.0244073561,    0.0000000000,   -0.0018404374,    0.0000000000,   -0.0177613993,    0.0000000000 ]
  - [    0.0067010757,   -0.0000000000,    0.0031644515,   -0.0000000000,    0.0024077047,   -0.0000000000,   -0.0207792735,   -0.0000000000,    0.0086375203,   -0.0000000000,    0.0037262580,   -0.0000000000,   -0.0260094668,   -0.0000000000,   -0.0070230379,   -0.0000000000,   -0.0037583768,   -0.0000000000,   -0.0395002425,   -0.0000000000,    0.0202068738,   -0.0000000000,    0.0303484418,   -0.0000000000,   -0.2858254216,   -0.0000000000,    0.0708009307,   -0.0000000000,   -0.0821489635,   -0.0000000000,   -0.1076051318,   -0.0000000000,   -0.0111715646,   -0.0000000000,   -0.0337739949,   -0.0000000000,    0.6299534615,   -0.0000000000,   -0.0895707334,    0.0000000000,    0.0092743645,    0.0000000000,    0.0450444194,    0.0000000000,    0.0180522535,    0.0000000000,    0.0193244099,    0.0000000000,    0.0457263989,    0.0000000000,   -0.0060943310,    0.0000000000,    0.0699967770,    0.0000000000,    0.0623412770,    0.0000000000,   -0.0045510366,    0.0000000000,   -0.0075087033,    0.0000000000,   -0.0896010856,    0.0000000000,   -0.0490436503,    0.0000000000,   -0.0141454593,    0.0000000000,   -0.1100254140,    0.0000000000,    0.0119184130,    0.0000000000,   -0.0391669720,    0.0000000000 ]
  - [    0.0067662665,   -0.0000000000,    0.0110402736,   -0.0000000000,    0.0043949236,   -0.0000000000,   -0.0039959841,   -0.0000000000,   -0.0534522809,   -0.0000000000,    0.0192897756,   -0.0000000000,    0.0060579547,   -0.0000000000,   -0.0468306138,   -0.0000000000,   -0.0104533180,   -0.0000000000,    0.0168748033,   -0.0000000000,   -0.0397011241,   -0.0000000000,   -0.0213990609,   -0.0000000000,    0.0336738768,   -0.0000000000,    0.0395414828,   -0.0000000000,    0.0345577299,   -0.0000000000,    0.0331582889,   -0.0000000000,    0.0533126867,   -0.0000000000,   -0.0150774789,   -0.0000000000,   -0.0895707334,   -0.0000000000,    0.7810071003,   -0.0000000000,   -0.0915248435,    0.0000000000,   -0.0180522535,    0.0000000000,   -0.0445890158,    0.0000000000,    0.0046131866,    0.0000000000,    0.0060943310,    0.0000000000,    0.0786932635,    0.0000000000,    0.0108221591,    0.0000000000,   -0.0045510366,    0.0000000000,   -0.3841195920,    0.0000000000,   -0.0020304360,    0.0000000000,   -0.0485178849,    0.0000000000,   -0.1059125498,    0.0000000000,    0.0959537063,    0.0000000000,    0.0263944597,    0.0000000000,   -0.1100768310,    0.0000000000,   -0.0178014775,    0.0000000000 ]
  - [   -0.0063340943,   -0.0000000000,   -0.0142224492,   -0.0000000000,   -0.0236808081,   -0.0000000000,   -0.0072047973,   -0.0000000000,    0.0376385955,   -0.0000000000,   -0.0429396944,   -0.0000000000,    0.0105798144,   -0.0000000000,    0.0018500560,   -0.0000000000,   -0.0287457628,   -0.0000000000,    0.0202170613,   -0.0000000000,   -0.0110995712,   -0.0000000000,   -0.0712833853,   -0.0000000000,   -0.0781825361,   -0.0000000000,    0.0347911847,   -0.0000000000,    0.0121875570,   -0.0000000000,   -0.0388096234,   -0.0000000000,    0.0197253424,   -0.0000000000,   -0.0633249527,   -0.0000000000,    0.0092743645,   -0.0000000000,   -0.0915248435,   -0.0000000000,    0.8116771343,   -0.0000000000,    0.0193244099,    0.0000000000,   -0.0046131866,    0.0000000000,   -0.0455187339,    0.0000000000,    0.0699967770,    0.0000000000,   -0.0108221591,    0.0000000000,   -0.3774363377,    0.0000000000,   -0.0075087033,    0.0000000000,   -0.0020304360,    0.0000000000,    0.0711952620,    0.0000000000,   -0.0280752175,    0.0000000000,    0.0303251312,    0.0000000000,   -0.0790504157,    0.0000000000,    0.0127680411,    0.0000000000,   -0.0096811254,    0.0000000000,    0.0681728422,    0.0000000000 ]
  - [   -0.0260094668,   -0.0000000000,    0.0070230379,   -0.0000000000,   -0.0037583768,   -0.0000000000,   -0.0395002425,   -0.0000000000,   -0.0202068738,   -0.0000000000,    0.0303484418,   -0.0000000000,    0.0067010757,   -0.0000000000,   -0.0031644515,   -0.0000000000,    0.0024077047,   -0.0000000000,   -0.0207792735,   -0.0000000000,   -0.0086375203,   -0.0000000000,    0.0037262580,   -0.0000000000,   -0.0896010856,   -0.0000000000,    0.0490436503,   -0.0000000000,   -0.0141454593,   -0.0000000000,   -0.1100254140,   -0.0000000000,   -0.0119184130,   -0.0000000000,   -0.0391669720,   -0.0000000000,    0.0450444194,   -0.0000000000,   -0.0180522535,   -0.0000000000,    0.0193244099,   -0.0000000000,    0.6299534615,   -0.0000000000,    0.0895707334,    0.0000000000,    0.0092743645,    0.0000000000,    0.0623412770,    0.0000000000,    0.0045510366,    0.0000000000,   -0.0075087033,    0.0000000000,    0.0457263989,    0.0000000000,    0.0060943310,    0.0000000000,    0.0699967770,    0.0000000000,   -0.2858254216,    0.0000000000,   -0.0708009307,    0.0000000000,   -0.0821489635,    0.0000000000,   -0.1076051318,    0.0000000000,    0.0111715646,    0.0000000000,   -0.0337739949,    0.0000000000 ]
  - [   -0.0060579547,   -0.0000000000,   -0.0468306138,   -0.0000000000,    0.0104533180,   -0.0000000000,   -0.0168748033,   -0.0000000000,   -0.0397011241,   -0.0000000000,    0.0213990609,   -0.0000000000,   -0.0067662665,   -0.0000000000,    0.0110402736,   -0.0000000000,   -0.0043949236,   -0.0000000000,    0.0039959841,   -0.0000000000,   -0.0534522809,   -0.0000000000,   -0.0192897756,   -0.0000000000,    0.0485178849,   -0.0000000000,   -0.1059125498,   -0.0000000000,   -0.0959537063,   -0.0000000000,   -0.0263944597,   -0.0000000000,   -0.1100768310,   -0.0000000000,    0.0178014775,   -0.0000000000,    0.0180522535,   -0.0000000000,   -0.0445890158,   -0.0000000000,   -0.0046131866,   -0.0000000000,    0.0895707334,   -0.0000000000,    0.7810071003,   -0.0000000000,    0.0915248435,    0.0000000000,    0.0045510366,    0.0000000000,   -0.3841195920,    0.0000000000,    0.0020304360,    0.0000000000,   -0.0060943310,    0.0000000000,    0.0786932635,    0.0000000000,   -0.0108221591,    0.0000000000,   -0.0336738768,    0.0000000000,    0.0395414828,    0.0000000000,   -0.0345577299,    0.0000000000,   -0.0331582889,    0.0000000000,    0.0533126867,    0.0000000000,    0.0150774789,    0.0000000000 ]
  - [    0.0105798144,   -0.0000000000,   -0.0018500560,   -0.0000000000,   -0.0287457628,   -0.0000000000,    0.0202170613,   -0.0000000000,    0.0110995712,   -0.0000000000,   -0.0712833853,   -0.0000000000,   -0.0063340943,   -0.0000000000,    0.0142224492,   -0.0000000000,   -0.0236808081,   -0.0000000000,   -0.0072047973,   -0.0000000000,   -0.0376385955,   -0.0000000000,   -0.0429396944,   -0.0000000000,   -0.0280752175,   -0.0000000000,   -0.0303251312,   -0.0000000000,   -0.0790504157,   -0.0000000000,    0.0127680411,   -0.0000000000,    0.0096811254,   -0.0000000000,    0.0681728422,   -0.0000000000,    0.0193244099,   -0.0000000000,    0.0046131866,   -0.0000000000,   -0.0455187339,   -0.0000000000,    0.0092743645,   -0.0000000000,    0.0915248435,   -0.0000000000,    0.8116771343,   -0.0000000000,   -0.0075087033,    0.0000000000,    0.0020304360,    0.0000000000,    0.0711952620,    0.0000000000,    0.0699967770,    0.0000000000,    0.0108221591,    0.0000000000,   -0.3774363377,    0.0000000000,   -0.0781825361,    0.0000000000,   -0.0347911847,    0.0000000000,    0.0121875570,    0.0000000000,   -0.0388096234,    0.0000000000,   -0.0197253424,    0.0000000000,   -0.0633249527,    0.0000000000 ]